LAMMPS data file
1188 atoms
2 atom types
-5.56672 5.56672 xlo xhi
-5.56672 5.56672 ylo yhi
-5.56672 5.56672 zlo zhi

Atoms

1 1 0.06507043193624185 -2.222475558240026 4.575277676768614 0 1 0.23873241463784303
2 1 2.3902506973858273 2.7898611833824063 -0.28274314228364084 0 1 0.23873241463784303
3 1 -1.8714785146380226 -1.3993626295179045 -0.952669418555125 0 1 0.23873241463784303
4 1 -3.999070230457562 5.0100030322676545 -0.8243780443016888 0 1 0.23873241463784303
5 1 -0.37634342710618895 3.819506605736059 3.7460219315001417 0 1 0.23873241463784303
6 1 -5.04069819296457 -0.9680380551720695 -3.9975789416830914 0 1 0.23873241463784303
7 1 -0.9897418565343692 -0.5417992982374535 -2.9627206575064022 0 1 0.23873241463784303
8 1 2.337745662105803 -1.5029425713308768 2.50706074853964 0 1 0.23873241463784303
9 1 -3.144351232893989 2.19381479245466 3.3944428944793117 0 1 0.23873241463784303
10 1 -4.310474011537121 0.7778845277528976 1.144538408997775 0 1 0.23873241463784303
11 1 -1.0189903054667528 -1.7751271928771466 1.71460898349628 0 1 0.23873241463784303
12 1 -0.30158477344512846 -4.56169711346773 2.3535165980829262 0 1 0.23873241463784303
13 1 2.721850453378707 -1.0224046627046306 1.264711862131687 0 1 0.23873241463784303
14 1 -4.275681795396688 4.127779825734855 -2.1308381656124027 0 1 0.23873241463784303
15 1 -3.006104217023605 -3.990840790725956 3.4727003853192784 0 1 0.23873241463784303
16 1 -0.5007564699404679 2.5267606754207 0.47403014610241634 0 1 0.23873241463784303
17 1 -2.3878396674100433 0.9180466164206571 -2.9676621523907016 0 1 0.23873241463784303
18 1 1.713714368770308 -4.770390202071676 0.7148365680902806 0 1 0.23873241463784303
19 1 0.9513557255108722 -2.655749208121133 2.3929591476096093 0 1 0.23873241463784303
20 1 1.6545799845703115 2.656204988169936 2.8789414416814623 0 1 0.23873241463784303
21 1 -2.317288074127518 1.845215587334991 -3.6190526705907597 0 1 0.23873241463784303
22 1 -3.7423225455740656 -3.6196746032901608 -1.868261129416748 0 1 0.23873241463784303
23 1 -2.8514145202355454 0.5359262394120385 -1.8654960604963282 0 1 0.23873241463784303
24 1 -4.281637122072571 1.0166391476924765 0.11523983549630934 0 1 0.23873241463784303
25 1 4.608943100248204 -5.001045984184081 3.936884630698721 0 1 0.23873241463784303
26 1 4.196078000897451 -3.4408250491793275 -3.0129689337752676 0 1 0.23873241463784303
27 1 2.168840395508827 -3.760275703296612 1.0597266350798797 0 1 0.23873241463784303
28 1 3.344597253135909 2.230813631964338 1.5841535852511086 0 1 0.23873241463784303
29 1 3.384196388544197 -1.2939396497872888 -2.1478095008546934 0 1 0.23873241463784303
30 1 -5.050075929292097 4.166184393405381 1.5493745391697082 0 1 0.23873241463784303
31 1 -0.6877451178277045 0.135082927707753 -0.73281350926427 0 1 0.23873241463784303
32 1 -3.254834434154022 2.4199693585603725 -4.237966435961836 0 1 0.23873241463784303
33 1 2.0957927019540605 -3.9526065917452318 -3.5436152722431036 0 1 0.23873241463784303
34 1 3.3753050504114483 1.5759004889576893 -3.735838314370074 0 1 0.23873241463784303
35 1 -1.4687578066529792 0.2700707945850205 5.031231815283611 0 1 0.23873241463784303
36 1 1.0357673723000005 -1.1658374210472147 -2.7292209115897705 0 1 0.23873241463784303
37 1 3.578884414983534 -3.9490429110895438 -4.609356959480355 0 1 0.23873241463784303
38 1 0.8347156584266031 -0.19758694455885717 2.2328224654469437 0 1 0.23873241463784303
39 1 -0.9239470388187527 -0.12276304118858761 3.858535846051929 0 1 0.23873241463784303
40 1 -2.928366331310208 0.46836338592801674 -0.3114799359254832 0 1 0.23873241463784303
41 1 -0.2561286366236679 -3.9417871906217172 -1.6536105984847431 0 1 0.23873241463784303
42 1 1.2971756685487357 4.965608188733473 1.645535199820678 0 1 0.23873241463784303
43 1 -0.7307063191917056 -1.1186847230359387 0.4226799156996055 0 1 0.23873241463784303
44 1 -1.4010367239704404 -2.1519940783123914 -1.4832755217996745 0 1 0.23873241463784303
45 1 -2.3500845543125486 2.9963740141880955 5.05175876685518 0 1 0.23873241463784303
46 1 1.2306448639785152 -4.893711887883978 -3.084741410742156 0 1 0.23873241463784303
47 1 -4.835237699266115 1.2840464310799007 -4.807269801848106 0 1 0.23873241463784303
48 1 4.182867556616049 4.444254436583908 -0.9603130389049142 0 1 0.23873241463784303
49 1 0.7124388928376284 1.9572013056304272 -1.9774196342477879 0 1 0.23873241463784303
50 1 3.0300922982823373 4.318531752545329 -5.043566696866224 0 1 0.23873241463784303
51 1 -0.19537320022056015 4.104855700186597 -2.4372962309363437 0 1 0.23873241463784303
52 1 -0.9405610160394655 2.264079954194422 -0.577260798662806 0 1 0.23873241463784303
53 1 2.3729053657996104 1.6615516272954594 -3.0996945220342127 0 1 0.23873241463784303
54 1 4.932732646752626 1.8655369361094536 -4.452877837615652 0 1 0.23873241463784303
55 1 0.13453879369213517 -1.5906120864291147 2.5769542135449335 0 1 0.23873241463784303
56 1 1.9942275067823978 -4.329992935963428 -1.9020894336390626 0 1 0.23873241463784303
57 1 3.383294525806022 4.11858064703852 4.338190199866393 0 1 0.23873241463784303
58 1 2.0527248500090884 3.483321930966863 -3.785510449373417 0 1 0.23873241463784303
59 1 2.500326197741341 -3.145260852038769 1.906780943035404 0 1 0.23873241463784303
60 1 -3.445618266758819 1.3704842225540688 4.942333898831457 0 1 0.23873241463784303
61 1 2.6317154057178485 0.2521751207007199 -1.3920646991407928 0 1 0.23873241463784303
62 1 -4.4469790384181636 -4.607901543085822 2.633860831516113 0 1 0.23873241463784303
63 1 -3.5187268651824333 -1.729123593656972 -2.9175472698815774 0 1 0.23873241463784303
64 1 -3.3672383543142086 -1.1229401057100112 3.8273902102229798 0 1 0.23873241463784303
65 1 2.326454540740471 0.19483627691058913 -4.175269877861377 0 1 0.23873241463784303
66 1 -3.357302856859919 -3.217434889993905 2.6724295530905593 0 1 0.23873241463784303
67 1 4.287932811217786 -4.005081393523067 -1.335847502194671 0 1 0.23873241463784303
68 1 1.2685556449991822 1.0645745509732336 -1.3843292135560947 0 1 0.23873241463784303
69 1 3.2291982865444453 3.0059018498250545 4.192267616054657 0 1 0.23873241463784303
70 1 -0.2735051967262905 2.0502714599471332 -4.524037064174154 0 1 0.23873241463784303
71 1 1.5699797009422873 1.581855496101408 1.74781182142004 0 1 0.23873241463784303
72 1 -4.123366735723119 3.0003009035982835 0.777868382058136 0 1 0.23873241463784303
73 1 0.6679552338876196 -0.9727007068188076 1.2494408524057654 0 1 0.23873241463784303
74 1 -2.90426086617917 -2.984218967947454 4.274939493357834 0 1 0.23873241463784303
75 1 -2.6254850292124896 -0.3468167056917508 0.5601187977805662 0 1 0.23873241463784303
76 1 -4.628700054998486 -0.5563502926591468 0.5044152935097266 0 1 0.23873241463784303
77 1 -1.2060697256807273 2.7056930650503865 4.862574844917038 0 1 0.23873241463784303
78 1 -3.3307798900033845 -0.5502057443482027 -1.4267707157628404 0 1 0.23873241463784303
79 1 -3.137939110936081 1.8543392671001548 0.3236532477075649 0 1 0.23873241463784303
80 1 -3.9856453817896007 1.1601190052994 -0.8850894130328513 0 1 0.23873241463784303
81 1 0.024698606526399658 -1.5514534810450424 -0.191982716463178 0 1 0.23873241463784303
82 1 0.09167701470331835 2.079835539423083 1.4262178839185609 0 1 0.23873241463784303
83 1 3.7351188341394597 -2.0789923552009224 1.9065046353279875 0 1 0.23873241463784303
84 1 0.15771379874090563 3.5702812030787534 0.8899628965620074 0 1 0.23873241463784303
85 1 -1.4717454175506575 -1.1978830752834746 3.717889222072131 0 1 0.23873241463784303
86 1 0.9449800461048241 2.8816582931643424 -2.6595524045221968 0 1 0.23873241463784303
87 1 3.7354081265585144 -4.373428876516197 -2.944426384767125 0 1 0.23873241463784303
88 1 -3.602186727227309 0.4069514949060977 2.52769670092065 0 1 0.23873241463784303
89 1 1.1060526578029126 0.18037198280003963 -2.713249543936156 0 1 0.23873241463784303
90 1 3.9691578595228343 -2.693904197265722 -2.0888922624643556 0 1 0.23873241463784303
91 1 4.287492078026133 4.235571363606674 1.4148648508327568 0 1 0.23873241463784303
92 1 -2.2922999308172454 -2.3981501412599133 -3.851811002785201 0 1 0.23873241463784303
93 1 -3.3180670461065223 3.6569230304448475 3.4934154253077203 0 1 0.23873241463784303
94 1 0.8194371714556681 0.636318197135914 0.9915223358849161 0 1 0.23873241463784303
95 1 -4.9098060715055585 2.7622327326222234 -1.3105465048446021 0 1 0.23873241463784303
96 1 -3.563273441140236 -0.4197720300235819 -3.153983485721401 0 1 0.23873241463784303
97 1 -0.673526014379366 2.0772832852536673 3.0220992280835013 0 1 0.23873241463784303
98 1 2.181579062320452 -4.11370071792695 4.088573997032338 0 1 0.23873241463784303
99 1 3.2539891999240993 -3.749973513570641 3.1817842800424714 0 1 0.23873241463784303
100 1 2.5138390768906262 1.8405967773938663 0.9702495486703171 0 1 0.23873241463784303
101 1 1.8811154780141877 1.5631315707259574 3.731966778510806 0 1 0.23873241463784303
102 1 0.32470842965579294 -2.935847896108383 -2.9020002684249384 0 1 0.23873241463784303
103 1 2.147751943544442 -0.9800083961222352 3.770506076465633 0 1 0.23873241463784303
104 1 -3.1436604377967132 -1.6661275853089315 -3.8753981251222154 0 1 0.23873241463784303
105 1 4.5775299255913815 -4.822830051124367 -1.925300304007271 0 1 0.23873241463784303
106 1 0.2619192574929965 -4.004444127728485 1.1153067287911078 0 1 0.23873241463784303
107 1 -1.7889632507371633 -1.4318305032693708 -5.049470367073345 0 1 0.23873241463784303
108 1 -3.5728664704240867 -1.2576966653518742 2.3044363881135013 0 1 0.23873241463784303
109 2 -2.38056078622761 -0.17193782938354296 -2.737912088703645 0 0.11964285714285713 3.2366692065277736
110 2 -4.44046531028936 -0.25128286555662527 1.118364114526809 0 0.11964285714285713 3.2366692065277736
111 2 0.14476617674753633 -1.8382399553118383 -3.4822588545352477 0 0.11964285714285713 3.2366692065277736
112 2 4.026410450380819 4.425841680538404 5.02835267888365 0 0.11964285714285713 3.2366692065277736
113 2 -4.594172207680225 -2.013293766302631 1.0152837530591832 0 0.11964285714285713 3.2366692065277736
114 2 1.8773561627315374 -1.9253650036641154 -2.3667537480891347 0 0.11964285714285713 3.2366692065277736
115 2 -0.7471611097168704 -3.3687033845687626 -0.2451759395855735 0 0.11964285714285713 3.2366692065277736
116 2 -0.05348413624093595 0.6668861561251997 -2.8432580610359963 0 0.11964285714285713 3.2366692065277736
117 2 -4.186920329356473 1.2101392978322956 -2.433528106019823 0 0.11964285714285713 3.2366692065277736
118 2 -2.113166717214913 2.665163101129469 0.402296557854914 0 0.11964285714285713 3.2366692065277736
119 2 3.091573551480483 -2.1496512610607468 -2.301698091166484 0 0.11964285714285713 3.2366692065277736
120 2 4.988279370745509 1.1259256667795476 3.6458019202148115 0 0.11964285714285713 3.2366692065277736
121 2 -1.4902974461451972 -0.01961504306627404 -1.2453969678790209 0 0.11964285714285713 3.2366692065277736
122 2 -2.865210324530935 -1.7166542255844455 -2.3024893092038266 0 0.11964285714285713 3.2366692065277736
123 2 0.8967668242336266 1.7070625819236582 3.634711803129491 0 0.11964285714285713 3.2366692065277736
124 2 -2.8250137343891257 1.3405509202820944 2.036694509419405 0 0.11964285714285713 3.2366692065277736
125 2 4.51995875381607 4.198803431022302 -1.573186741362047 0 0.11964285714285713 3.2366692065277736
126 2 3.5500580380450764 1.450961859536168 -2.9800158113379673 0 0.11964285714285713 3.2366692065277736
127 2 -4.88567547596795 2.4122291422816105 -0.6770563543145762 0 0.11964285714285713 3.2366692065277736
128 2 4.850550809641852 2.7430042261378027 -0.8285707776041953 0 0.11964285714285713 3.2366692065277736
129 2 0.15224806464959428 2.0267630911585535 3.524081416281728 0 0.11964285714285713 3.2366692065277736
130 2 -4.872502811681898 -4.928975072294945 -4.900399483096875 0 0.11964285714285713 3.2366692065277736
131 2 -2.3069977587346475 0.022035123165046855 -0.7227424655765748 0 0.11964285714285713 3.2366692065277736
132 2 3.393698268890052 0.028281392848645837 1.0864448337255155 0 0.11964285714285713 3.2366692065277736
133 2 -3.9726783007403697 -3.388746338534242 4.739347007802433 0 0.11964285714285713 3.2366692065277736
134 2 4.540009742835718 1.244526031115356 0.48399914044113324 0 0.11964285714285713 3.2366692065277736
135 2 1.9817962538375973 0.684049117824614 0.4584741189543884 0 0.11964285714285713 3.2366692065277736
136 2 2.832297012842627 2.4405477454848885 -0.7189237978468377 0 0.11964285714285713 3.2366692065277736
137 2 -3.105375721777227 -3.1399636895653096 0.38222846929168597 0 0.11964285714285713 3.2366692065277736
138 2 3.6746678551030136 -0.3440034493898523 -2.8818003355328194 0 0.11964285714285713 3.2366692065277736
139 2 3.464743752464109 2.0744618695928096 -3.1725166458609344 0 0.11964285714285713 3.2366692065277736
140 2 -1.668207950407643 -3.0494784211959303 3.003371655090209 0 0.11964285714285713 3.2366692065277736
141 2 -0.5099753089632824 -3.3944669822670654 -4.089863261511688 0 0.11964285714285713 3.2366692065277736
142 2 -4.427170396058472 -4.723080700824761 -0.1842809803122485 0 0.11964285714285713 3.2366692065277736
143 2 3.1965576421636186 0.6025728961449133 -0.8430500466512889 0 0.11964285714285713 3.2366692065277736
144 2 1.0913380148276524 2.4352480066048585 0.03526903019133876 0 0.11964285714285713 3.2366692065277736
145 2 -1.336147080568157 -2.4698137769849193 1.9073832689456829 0 0.11964285714285713 3.2366692065277736
146 2 -4.000129111509224 4.0096889604691235 1.2606284005490096 0 0.11964285714285713 3.2366692065277736
147 2 2.4288000024918617 4.922014991357443 -0.7647511515481522 0 0.11964285714285713 3.2366692065277736
148 2 4.1100457183462 3.8939765555560513 -3.48649936879365 0 0.11964285714285713 3.2366692065277736
149 2 -3.2603280718832224 4.751204142682827 4.181154781515314 0 0.11964285714285713 3.2366692065277736
150 2 3.5009197368425546 2.2398146885029924 3.839296722455675 0 0.11964285714285713 3.2366692065277736
151 2 -3.748224764674754 -4.750518980458157 3.7966423504562137 0 0.11964285714285713 3.2366692065277736
152 2 -4.285157597536758 -4.279616733307336 3.6967629033529654 0 0.11964285714285713 3.2366692065277736
153 2 2.500670591730575 -4.956440722095939 2.0775643897859304 0 0.11964285714285713 3.2366692065277736
154 2 -2.894342108682478 0.1285259733748756 3.12250431358078 0 0.11964285714285713 3.2366692065277736
155 2 1.813450315364996 0.1875035477831446 -0.655452826794729 0 0.11964285714285713 3.2366692065277736
156 2 0.7420818902454016 -0.8026247032089397 -4.676679388266402 0 0.11964285714285713 3.2366692065277736
157 2 3.9961554017314818 1.121254985740343 1.33632297032063 0 0.11964285714285713 3.2366692065277736
158 2 -1.0877558810641421 -2.6513355337051685 -3.8754417556228358 0 0.11964285714285713 3.2366692065277736
159 2 -2.8440721913281433 1.6258690954493247 2.7590640834874236 0 0.11964285714285713 3.2366692065277736
160 2 2.4534141441936725 1.1639978694048345 -0.9909780212158914 0 0.11964285714285713 3.2366692065277736
161 2 3.7327128417322832 4.8268274830746165 3.5362825829945876 0 0.11964285714285713 3.2366692065277736
162 2 2.8918808803821427 -3.8069231369692673 -1.6548690295152237 0 0.11964285714285713 3.2366692065277736
163 2 -3.04060915015266 -4.316142572187131 -3.4436953120897194 0 0.11964285714285713 3.2366692065277736
164 2 2.5465083171556557 0.32583556970019245 0.956804276591857 0 0.11964285714285713 3.2366692065277736
165 2 -3.7470632626301708 -1.8912527322613712 -0.15470868163638585 0 0.11964285714285713 3.2366692065277736
166 2 -3.8401265314868684 -0.8447095768041244 -3.7423935283249588 0 0.11964285714285713 3.2366692065277736
167 2 -0.5481981066539934 0.7279281475360708 0.5859525541904702 0 0.11964285714285713 3.2366692065277736
168 2 3.8837933889750857 -5.066612733386769 -3.6014005931002835 0 0.11964285714285713 3.2366692065277736
169 2 1.1364996509264955 5.034275991605281 2.498458782500819 0 0.11964285714285713 3.2366692065277736
170 2 4.814914952878237 1.9333302630459457 0.7773116598093193 0 0.11964285714285713 3.2366692065277736
171 2 3.691394357472678 5.002174913338944 2.1729448601060994 0 0.11964285714285713 3.2366692065277736
172 2 3.4188497102061106 4.634944721197115 -2.67095451612645 0 0.11964285714285713 3.2366692065277736
173 2 1.4752015893334374 -3.718976110797989 -0.8707558477087289 0 0.11964285714285713 3.2366692065277736
174 2 4.152504266435887 3.5491783698870734 2.1842861551287527 0 0.11964285714285713 3.2366692065277736
175 2 -3.1349960275763245 -4.1035169884599725 -2.3639048530426336 0 0.11964285714285713 3.2366692065277736
176 2 -2.608370757994818 -0.49919645589851136 2.327972838235503 0 0.11964285714285713 3.2366692065277736
177 2 -0.8009791486000246 -4.977579526266188 -4.697018304783112 0 0.11964285714285713 3.2366692065277736
178 2 -0.980715636063751 3.2157753479300837 1.1044918952249887 0 0.11964285714285713 3.2366692065277736
179 2 -4.96883063466257 -2.8306628755772643 1.7954668996667635 0 0.11964285714285713 3.2366692065277736
180 2 3.407814197323269 3.8517189187932814 1.1478145610872659 0 0.11964285714285713 3.2366692065277736
181 2 -0.4505490392693936 -2.9363755293728246 -3.309281968668575 0 0.11964285714285713 3.2366692065277736
182 2 -4.981871310217318 -1.1218950931550662 0.9294186792071102 0 0.11964285714285713 3.2366692065277736
183 2 4.611251947808519 3.8877537359625336 -2.6078414787762156 0 0.11964285714285713 3.2366692065277736
184 2 -2.019023399685432 -0.173233556190592 4.879966770705622 0 0.11964285714285713 3.2366692065277736
185 2 3.6935457604788837 2.82084132404853 0.6590401307341125 0 0.11964285714285713 3.2366692065277736
186 2 -0.6233133792881453 -0.15002355257514566 4.489135292645429 0 0.11964285714285713 3.2366692065277736
187 2 -0.22604390972830757 4.675471945736746 -2.8800329300496177 0 0.11964285714285713 3.2366692065277736
188 2 2.0925309683610394 4.834694871132225 1.4401021454030314 0 0.11964285714285713 3.2366692065277736
189 2 -0.5102861864243327 -2.182070738792415 -3.0011719076204013 0 0.11964285714285713 3.2366692065277736
190 2 -3.111151230725387 1.4037209977089944 -3.5296931859247778 0 0.11964285714285713 3.2366692065277736
191 2 3.0802004788646578 2.7521016021997653 0.006176783128971408 0 0.11964285714285713 3.2366692065277736
192 2 1.7459878510219795 4.972132187695436 -4.644464233705387 0 0.11964285714285713 3.2366692065277736
193 2 2.0909343312567117 -1.9199841100618684 -3.3188928021360073 0 0.11964285714285713 3.2366692065277736
194 2 -3.1788655018766026 -0.4546592791011257 -3.895651991112924 0 0.11964285714285713 3.2366692065277736
195 2 5.032493235526605 -1.2621659225718584 0.6179356781661323 0 0.11964285714285713 3.2366692065277736
196 2 -0.6891398471615826 1.6247659892816095 -2.135911585870778 0 0.11964285714285713 3.2366692065277736
197 2 2.156585582981169 -1.1716203346483915 4.956884086409769 0 0.11964285714285713 3.2366692065277736
198 2 1.8842043305978144 -1.3325582034502723 4.643137686597161 0 0.11964285714285713 3.2366692065277736
199 2 1.8994630521530809 -1.9710838266089148 4.515754709613713 0 0.11964285714285713 3.2366692065277736
200 2 0.7253658543868209 -4.513726585995938 -0.3990346103268525 0 0.11964285714285713 3.2366692065277736
201 2 4.886056064479554 2.7948899247618932 -3.174033221689296 0 0.11964285714285713 3.2366692065277736
202 2 -2.1434131093214646 0.563943941655543 -4.122764080535495 0 0.11964285714285713 3.2366692065277736
203 2 1.6693167283629577 -3.208259234311784 0.6239236049316208 0 0.11964285714285713 3.2366692065277736
204 2 3.2900890513783843 -3.342375515135318 -4.108831227964442 0 0.11964285714285713 3.2366692065277736
205 2 3.671294269874256 1.9685365256715066 0.9263507252020418 0 0.11964285714285713 3.2366692065277736
206 2 -1.53269724125564 2.74835914734577 1.4664604474570382 0 0.11964285714285713 3.2366692065277736
207 2 3.2120725100574568 -1.81959004246092 2.557655359683345 0 0.11964285714285713 3.2366692065277736
208 2 0.9036901897160767 3.8844842506684216 -4.250181445688449 0 0.11964285714285713 3.2366692065277736
209 2 -1.565492067891391 -2.278069111168298 0.6131599322654235 0 0.11964285714285713 3.2366692065277736
210 2 2.412417769687675 0.7307220562617562 1.4425039792783743 0 0.11964285714285713 3.2366692065277736
211 2 5.033910994395182 3.2169661595712107 2.9227558684563455 0 0.11964285714285713 3.2366692065277736
212 2 -2.5435417511882736 0.16053166550419107 -4.085345204529 0 0.11964285714285713 3.2366692065277736
213 2 -4.686277615249153 -1.8620847380260948 -0.27136692849343014 0 0.11964285714285713 3.2366692065277736
214 2 4.659721532415471 -2.954659305245773 0.5491244119432928 0 0.11964285714285713 3.2366692065277736
215 2 1.3855039721930105 -0.3001377375287593 -3.723598420675435 0 0.11964285714285713 3.2366692065277736
216 2 -2.894441804671599 -2.996582206965643 2.9378273257501775 0 0.11964285714285713 3.2366692065277736
217 2 -0.07798271661469691 -0.6174319085466102 -1.3152627623365465 0 0.11964285714285713 3.2366692065277736
218 2 -4.763120716048208 -2.7148660890687744 -3.9268022837669125 0 0.11964285714285713 3.2366692065277736
219 2 -2.7006909369767467 -0.3960261867985597 -1.8572283167697456 0 0.11964285714285713 3.2366692065277736
220 2 2.9303850349400626 -3.445290931779601 -2.6416539834308317 0 0.11964285714285713 3.2366692065277736
221 2 -4.036635499337699 -2.6141921968193937 2.0373770275410337 0 0.11964285714285713 3.2366692065277736
222 2 2.725148351058234 -4.964999618614325 1.5139045382919711 0 0.11964285714285713 3.2366692065277736
223 2 2.0290781112295626 -1.2861152729694538 3.0604468533247804 0 0.11964285714285713 3.2366692065277736
224 2 -1.6729505623976042 -1.8274903106979377 2.818440824540211 0 0.11964285714285713 3.2366692065277736
225 2 1.4639809652508085 0.5875257740069433 -5.048845316964277 0 0.11964285714285713 3.2366692065277736
226 2 -4.480967353648747 4.837503067918885 2.747650623958833 0 0.11964285714285713 3.2366692065277736
227 2 -0.7847649796841338 3.4199687925027042 -2.2681491297981786 0 0.11964285714285713 3.2366692065277736
228 2 1.9456987476999288 -1.8175111483780615 2.012089698663736 0 0.11964285714285713 3.2366692065277736
229 2 3.643539376907235 -0.4994691665126645 4.028132588556879 0 0.11964285714285713 3.2366692065277736
230 2 -2.167226456694607 -1.098550773541886 3.6428922831682478 0 0.11964285714285713 3.2366692065277736
231 2 -0.08447708309835633 4.358957142247444 0.5540882332070023 0 0.11964285714285713 3.2366692065277736
232 2 3.3768914391235185 1.1748913147816111 3.8452957133354033 0 0.11964285714285713 3.2366692065277736
233 2 0.5997237501057828 1.0926255470443564 -3.241820304238196 0 0.11964285714285713 3.2366692065277736
234 2 1.4402322301606816 2.618696806048103 -2.0656029454415386 0 0.11964285714285713 3.2366692065277736
235 2 3.836717652255288 -0.6408246556777062 -4.310955071212691 0 0.11964285714285713 3.2366692065277736
236 2 0.8414692362700542 -3.965083517721135 2.2807236915753144 0 0.11964285714285713 3.2366692065277736
237 2 -2.0895119389757184 -2.8008463006099813 4.752767121841583 0 0.11964285714285713 3.2366692065277736
238 2 -4.834766512196914 3.3793796762182424 3.8046040585447614 0 0.11964285714285713 3.2366692065277736
239 2 0.9470887416250733 2.4713680920356396 1.4883434567865734 0 0.11964285714285713 3.2366692065277736
240 2 4.968712134742226 2.386315971459645 -3.3240881142855088 0 0.11964285714285713 3.2366692065277736
241 2 -2.446227473502697 -0.25697238123665045 2.5215540615177687 0 0.11964285714285713 3.2366692065277736
242 2 3.618100385570166 -3.361267206833574 -4.936630649161081 0 0.11964285714285713 3.2366692065277736
243 2 -3.9764706211497707 3.5648461935680125 -1.0614287137334077 0 0.11964285714285713 3.2366692065277736
244 2 4.490785719669642 1.5692857171975874 1.9009459965028306 0 0.11964285714285713 3.2366692065277736
245 2 -1.849117488170526 4.863506935732776 1.2487713446259825 0 0.11964285714285713 3.2366692065277736
246 2 -1.511714220768967 -3.675617422483496 -4.738466084962187 0 0.11964285714285713 3.2366692065277736
247 2 -2.5713696008257596 -0.3871854325396171 1.9385418224841722 0 0.11964285714285713 3.2366692065277736
248 2 -3.51077987685051 -4.856566359007717 1.9321165016650923 0 0.11964285714285713 3.2366692065277736
249 2 -4.155943888300001 -4.61739193555653 -0.4900815414386912 0 0.11964285714285713 3.2366692065277736
250 2 3.951178486907857 -0.656214648840793 -0.12590419476519976 0 0.11964285714285713 3.2366692065277736
251 2 4.986454105864212 2.5688198339296484 -4.5807244698437675 0 0.11964285714285713 3.2366692065277736
252 2 -1.3998376903784173 -2.797520402976403 -3.0497255596258324 0 0.11964285714285713 3.2366692065277736
253 2 0.1779662808999003 -0.715367594543471 -0.6330777511525056 0 0.11964285714285713 3.2366692065277736
254 2 -2.5198045010802996 3.5736842876160644 -2.47437910678471 0 0.11964285714285713 3.2366692065277736
255 2 -1.7085193786682087 0.021212185661799055 -0.7719094311914123 0 0.11964285714285713 3.2366692065277736
256 2 4.699458336174036 -2.516709166022899 -3.5817141504791117 0 0.11964285714285713 3.2366692065277736
257 2 1.7047765460686435 4.1122026086083245 -2.202523633924903 0 0.11964285714285713 3.2366692065277736
258 2 4.071999068719947 2.893699801325088 -3.8092607410159083 0 0.11964285714285713 3.2366692065277736
259 2 4.445636672227451 -0.09348500331289245 1.7827689477229178 0 0.11964285714285713 3.2366692065277736
260 2 -4.892173174652015 -0.7749569120555737 -0.9966275245493268 0 0.11964285714285713 3.2366692065277736
261 2 1.187694089931579 -4.168799586734194 1.3886950923931813 0 0.11964285714285713 3.2366692065277736
262 2 -3.3384360826821737 -1.8923780269832235 3.7555203373246187 0 0.11964285714285713 3.2366692065277736
263 2 4.1980505604946 -3.995294443580386 1.0974500318826514 0 0.11964285714285713 3.2366692065277736
264 2 -2.6544568328178624 3.678697749086787 -1.7271485905557515 0 0.11964285714285713 3.2366692065277736
265 2 -0.31035318229935527 -2.31710716750937 -3.1585297486141997 0 0.11964285714285713 3.2366692065277736
266 2 0.5285803147634418 0.0110319156397658 4.9054011251219904 0 0.11964285714285713 3.2366692065277736
267 2 -0.7466315306252529 -1.6992938469908179 2.377287287752562 0 0.11964285714285713 3.2366692065277736
268 2 0.9325866289002285 0.22857144183326206 4.664890642117761 0 0.11964285714285713 3.2366692065277736
269 2 1.0079728414259534 -3.8554062080143066 2.49145249194315 0 0.11964285714285713 3.2366692065277736
270 2 3.5042888826017347 -0.7973919613642373 -0.9435933478545966 0 0.11964285714285713 3.2366692065277736
271 2 -0.4670658699453991 3.6839512785274486 -3.9277966980403693 0 0.11964285714285713 3.2366692065277736
272 2 -0.5333405131148634 -0.32456382449905696 1.8460790563819955 0 0.11964285714285713 3.2366692065277736
273 2 1.174830885511895 2.6809372696505385 -1.4403508840896606 0 0.11964285714285713 3.2366692065277736
274 2 4.6140598751942505 -3.245368313478897 0.3122709383013671 0 0.11964285714285713 3.2366692065277736
275 2 -2.9156738983890147 -3.1083774095213172 -1.0424277258136367 0 0.11964285714285713 3.2366692065277736
276 2 -0.3464075858983442 -2.9675652240380934 -4.031358784278007 0 0.11964285714285713 3.2366692065277736
277 2 -3.2398002590156025 2.590514973766723 -1.68650472606876 0 0.11964285714285713 3.2366692065277736
278 2 4.776918384551877 -2.327569394274004 1.7746612792907897 0 0.11964285714285713 3.2366692065277736
279 2 2.6082518195519206 1.2524256943315812 -3.8469573406444777 0 0.11964285714285713 3.2366692065277736
280 2 -1.6274622759644632 -2.4690021683294034 4.420606109239767 0 0.11964285714285713 3.2366692065277736
281 2 -0.733522202861586 -3.3548487455091482 0.7111472686645257 0 0.11964285714285713 3.2366692065277736
282 2 -4.47402631287626 4.4905959269960825 -0.770575416146718 0 0.11964285714285713 3.2366692065277736
283 2 -0.5602309005091062 -3.0007679808563363 1.064822846491257 0 0.11964285714285713 3.2366692065277736
284 2 1.2200485454913448 3.9635478349959676 -2.409427019071579 0 0.11964285714285713 3.2366692065277736
285 2 -3.3938035465491527 -2.703556295127198 4.9272517326999115 0 0.11964285714285713 3.2366692065277736
286 2 -1.522852129925262 4.259404222048733 3.8266642302112643 0 0.11964285714285713 3.2366692065277736
287 2 -3.687714772090354 -3.946006990083223 4.076173507947104 0 0.11964285714285713 3.2366692065277736
288 2 3.5906379881696076 -2.6245821121951423 4.007032672902387 0 0.11964285714285713 3.2366692065277736
289 2 1.4367380213962093 4.926806225044256 -3.764771172290539 0 0.11964285714285713 3.2366692065277736
290 2 -1.6946503582921348 -1.6049260167130193 2.26826103380586 0 0.11964285714285713 3.2366692065277736
291 2 -4.383972562000366 2.744651349427336 -0.14508025787064938 0 0.11964285714285713 3.2366692065277736
292 2 -2.1565260028936244 2.50547010139643 4.063746095412842 0 0.11964285714285713 3.2366692065277736
293 2 1.0080696220245073 -3.000074351259384 -1.352355013933245 0 0.11964285714285713 3.2366692065277736
294 2 -1.9465837119963165 -0.6129362330758461 -0.9133696937498534 0 0.11964285714285713 3.2366692065277736
295 2 3.2906339302639367 2.1640805552112496 3.926598621100073 0 0.11964285714285713 3.2366692065277736
296 2 2.5896296255086746 -3.3718012884985793 2.9638869193218085 0 0.11964285714285713 3.2366692065277736
297 2 -3.6425198036236335 -0.03886364272706366 3.6353835323800077 0 0.11964285714285713 3.2366692065277736
298 2 2.210038791075185 -0.48271597470869665 -1.5121896406286037 0 0.11964285714285713 3.2366692065277736
299 2 -2.770864546967161 -2.4898181216852606 1.0767456292677018 0 0.11964285714285713 3.2366692065277736
300 2 2.777954008982487 3.2073948914786747 2.2704269566132034 0 0.11964285714285713 3.2366692065277736
301 2 -4.234608542235247 -2.6141582670706143 -2.126054536636479 0 0.11964285714285713 3.2366692065277736
302 2 -3.674228003084737 0.7175926688387619 4.948214131789719 0 0.11964285714285713 3.2366692065277736
303 2 2.085898093226106 0.1598170742532563 0.6796184985485816 0 0.11964285714285713 3.2366692065277736
304 2 -3.747551950763121 0.5182306320994101 1.9397200826854153 0 0.11964285714285713 3.2366692065277736