LAMMPS data file
2808 atoms
2 atom types
-5.56672 5.56672 xlo xhi
-5.56672 5.56672 ylo yhi
-5.56672 5.56672 zlo zhi

Atoms

1 1 1.1499427003553109 2.4133885634168806 -3.621531977339707 0 1 0.23873241463784303
2 1 1.929745179441408 -2.517706242765483 1.7258411089107035 0 1 0.23873241463784303
3 1 1.0098719281747037 4.665231984922439 4.279767722036738 0 1 0.23873241463784303
4 1 3.1644536665284377 3.6188178874271983 4.015341159233479 0 1 0.23873241463784303
5 1 -0.9204801968642542 2.6813691991614945 4.153834380073835 0 1 0.23873241463784303
6 1 -3.910087238974203 4.977554300887984 -4.400063129007631 0 1 0.23873241463784303
7 1 -3.0632161672855265 -4.849592511697352 3.0525203883554966 0 1 0.23873241463784303
8 1 -3.4855310265753445 -0.5932416547045118 -0.30829964427834256 0 1 0.23873241463784303
9 1 -2.5716767115029313 -4.196591369929836 -4.910940144229356 0 1 0.23873241463784303
10 1 -4.981943200973063 2.8195634479700225 3.052300840670817 0 1 0.23873241463784303
11 1 0.20098592408252713 -3.518212835506761 -2.148675873493074 0 1 0.23873241463784303
12 1 -1.456961678694908 -4.548581307561834 3.8571327236418647 0 1 0.23873241463784303
13 1 -0.8060534649506295 -3.96494038921875 -1.2518888972079925 0 1 0.23873241463784303
14 1 -2.3746868625128936 -2.7445719983300307 0.3848249228910383 0 1 0.23873241463784303
15 1 0.005541040899858629 -4.8871101530740635 4.863145546185187 0 1 0.23873241463784303
16 1 3.137497774612232 4.285142500653869 -4.2074641040975465 0 1 0.23873241463784303
17 1 -1.8512846537004481 1.2814360649019534 -4.356366379112501 0 1 0.23873241463784303
18 1 -0.8044274416638064 0.24139433606083394 -3.5813832166420454 0 1 0.23873241463784303
19 1 -0.14098914828641895 3.9803809657218814 -2.5606508853199728 0 1 0.23873241463784303
20 1 3.694230051109944 -0.31993914555019565 3.6863310283707307 0 1 0.23873241463784303
21 1 0.11954006392613792 1.2056932280522048 0.7566128664278029 0 1 0.23873241463784303
22 1 1.1051335613707423 -0.6893234831462323 -2.11699670815954 0 1 0.23873241463784303
23 1 1.312286397085586 3.0072464210753402 2.1349657599868372 0 1 0.23873241463784303
24 1 -4.022057316172395 1.7648580514029284 0.8441216877981965 0 1 0.23873241463784303
25 1 -4.337031748547512 1.9708763109448313 4.295235722453441 0 1 0.23873241463784303
26 1 -0.09875876926171578 -4.534890042295125 -0.14192578630957797 0 1 0.23873241463784303
27 1 -1.939301774548495 2.109176598208524 -0.06478720977858998 0 1 0.23873241463784303
28 1 -0.20552089239157034 2.353039194905868 -4.216466056414015 0 1 0.23873241463784303
29 1 3.874527301947566 -1.6201322271316787 -1.4082198668379515 0 1 0.23873241463784303
30 1 0.99635346153147 4.727991900588172 1.6273909505692394 0 1 0.23873241463784303
31 1 -4.949909916643589 -4.237476263243279 -2.9326444555009292 0 1 0.23873241463784303
32 1 0.6010516790617473 4.969014203908603 -1.8678652900704655 0 1 0.23873241463784303
33 1 0.5678531485027349 -1.2046291923663173 4.85976433632095 0 1 0.23873241463784303
34 1 -4.508269035972521 -0.4068311965934779 -0.7307102410983219 0 1 0.23873241463784303
35 1 -1.5559124993652436 4.710515313941464 0.6342540129753242 0 1 0.23873241463784303
36 1 1.9733178906103284 -0.5336819374869783 -0.34268214134928066 0 1 0.23873241463784303
37 1 -1.2617687437148621 0.6950406033583985 0.6303007786598336 0 1 0.23873241463784303
38 1 -4.5752491927028185 -1.0223752844848022 3.9983261783604362 0 1 0.23873241463784303
39 1 -4.257631741444365 3.5069455226423045 -3.9090761323888845 0 1 0.23873241463784303
40 1 -4.577168943842205 -1.5974222344366016 1.1063125014096613 0 1 0.23873241463784303
41 1 4.0743378438188 2.2326208355170927 -1.1899206650554195 0 1 0.23873241463784303
42 1 -4.870265663208976 3.9235646529454122 1.3306982116363564 0 1 0.23873241463784303
43 1 -3.4581208730511186 -4.334891426030033 -0.672248122199905 0 1 0.23873241463784303
44 1 -1.9516834550822733 2.1436966106855344 -1.9366695248167982 0 1 0.23873241463784303
45 1 4.307671033189884 -3.214466757039517 3.7654807491711857 0 1 0.23873241463784303
46 1 -4.541115044878779 2.415294074782331 -1.8091542190600745 0 1 0.23873241463784303
47 1 0.5196400389962204 2.0714745660863727 3.4808185475476776 0 1 0.23873241463784303
48 1 3.6167821025745113 -0.42665932563909514 -1.5127717974826105 0 1 0.23873241463784303
49 1 -3.171820062729635 3.5881880067027545 2.585171025869844 0 1 0.23873241463784303
50 1 4.277509566723136 4.042115303429256 -0.8797604147042595 0 1 0.23873241463784303
51 1 2.0062217821704103 4.28608729272004 -3.3954798196876013 0 1 0.23873241463784303
52 1 2.509122310129687 4.786861694641463 3.5197235497606165 0 1 0.23873241463784303
53 1 1.8735699738302642 -4.768686981679634 4.9241323287421395 0 1 0.23873241463784303
54 1 -3.0878474785454344 4.461810017458518 3.3384704482288114 0 1 0.23873241463784303
55 1 3.4465013376561338 1.4362744859012189 3.3522634949902326 0 1 0.23873241463784303
56 1 0.5831463472564291 4.161491926675055 -4.695751057892354 0 1 0.23873241463784303
57 1 -3.1754680287666144 0.5095548073129095 3.792946679362899 0 1 0.23873241463784303
58 1 0.10951393372093321 -2.898080579689342 -0.22747543286210004 0 1 0.23873241463784303
59 1 -3.6156155881295167 2.763812313617084 2.010574760792025 0 1 0.23873241463784303
60 1 -2.5071915188717906 2.9092913199899897 -4.907490687458427 0 1 0.23873241463784303
61 1 -4.0061390618502095 -2.1969410423538847 2.8755529086536527 0 1 0.23873241463784303
62 1 -1.6319814515417939 -1.6580856015767829 -4.583257023774264 0 1 0.23873241463784303
63 1 -4.998580187194845 -5.023145555696505 0.10669117107728177 0 1 0.23873241463784303
64 1 3.5985939251442716 -3.84166024405606 -2.43958526696486 0 1 0.23873241463784303
65 1 -0.48652049473529324 2.718274345061406 -3.2728511493571357 0 1 0.23873241463784303
66 1 -1.4155372791622014 -0.36088108391523654 -4.211400889352191 0 1 0.23873241463784303
67 1 -2.162709912542617 3.9346738772622984 -0.35175040993797246 0 1 0.23873241463784303
68 1 1.440080621580016 -3.546788463689836 1.7300206565880636 0 1 0.23873241463784303
69 1 -2.8417157087104137 -2.6499706159956613 1.8501466929462325 0 1 0.23873241463784303
70 1 -2.897550875532618 -0.9125282529439502 2.5980565821702974 0 1 0.23873241463784303
71 1 -4.931352785677623 4.680082461727423 4.94732954211916 0 1 0.23873241463784303
72 1 -2.7350959978613982 -3.87522608768292 0.5042739215649235 0 1 0.23873241463784303
73 1 -1.271560407184733 -2.2060923259758454 2.6010057566885862 0 1 0.23873241463784303
74 1 1.781394162101769 -0.03659239782972179 -4.681159086866218 0 1 0.23873241463784303
75 1 4.428108739696068 1.932080786027818 -3.9069571440210673 0 1 0.23873241463784303
76 1 2.0930590944177005 5.064411255541078 -0.11301705132068918 0 1 0.23873241463784303
77 1 2.1008561521632885 -4.875565411625843 3.3302326212957105 0 1 0.23873241463784303
78 1 0.5516910137330253 1.6613536496503087 2.2082261111584423 0 1 0.23873241463784303
79 1 2.238688847666449 -3.397336560355674 -2.889320862794108 0 1 0.23873241463784303
80 1 -3.4904308198080347 -0.8340471933031246 3.8092752841576107 0 1 0.23873241463784303
81 1 3.551288217323979 -3.7678854313442987 3.2178079305681138 0 1 0.23873241463784303
82 1 2.960352174560793 1.8068331513216265 -0.17449545793917665 0 1 0.23873241463784303
83 1 0.8459836512092167 -1.0180034993576648 3.4322247418524974 0 1 0.23873241463784303
84 1 -4.109806267803094 3.225751395693525 -0.03934937981391862 0 1 0.23873241463784303
85 1 -1.7259157668834515 -0.7934208061848906 4.999165553647391 0 1 0.23873241463784303
86 1 4.2915675756187746 -3.1063958091382577 -2.567595037794037 0 1 0.23873241463784303
87 1 0.4838040388638678 3.0778289525879785 4.608397262803329 0 1 0.23873241463784303
88 1 -1.498290917730861 1.9321849942231992 1.801142339396666 0 1 0.23873241463784303
89 1 -1.7850106734980002 -1.168102243683041 -2.5605148529829105 0 1 0.23873241463784303
90 1 4.423939649345957 3.136744650996409 -2.6418967193909886 0 1 0.23873241463784303
91 1 -0.7314373151406155 -1.585156976086603 -3.809344518078545 0 1 0.23873241463784303
92 1 2.7152822348192167 -0.5018879552937037 1.0690980996329458 0 1 0.23873241463784303
93 1 4.805842544192995 0.1395828932425438 -2.7313137898610638 0 1 0.23873241463784303
94 1 3.3641071861605667 0.6167170783065501 -1.8739044557133422 0 1 0.23873241463784303
95 1 2.2713082303420045 0.2405397453208984 4.817641437100072 0 1 0.23873241463784303
96 1 2.356461971407164 1.296858636895685 -1.9167992626698371 0 1 0.23873241463784303
97 1 3.409565595592074 2.968905855768238 -2.327122702317526 0 1 0.23873241463784303
98 1 -2.6858066937602345 2.806494385523518 0.16106390982756302 0 1 0.23873241463784303
99 1 4.608899948644968 -3.141637064180065 -0.9471242463434137 0 1 0.23873241463784303
100 1 -0.7171569948357899 -0.42030880605590326 -0.5795003290764544 0 1 0.23873241463784303
101 1 -3.3933069379718273 0.1098356748525795 -4.175444934638586 0 1 0.23873241463784303
102 1 3.676615303229333 0.788355053560494 4.758495224445273 0 1 0.23873241463784303
103 1 -4.656044455366212 -0.22722840050654192 -3.051463203339745 0 1 0.23873241463784303
104 1 -4.470472500856124 -3.961103073246475 -1.2025599581446684 0 1 0.23873241463784303
105 1 -2.4065530481215003 1.4809321880905415 4.165126799805211 0 1 0.23873241463784303
106 1 -3.546534119098915 1.3666674077279026 -2.8090759264317704 0 1 0.23873241463784303
107 1 2.672446479774763 -4.893998959824007 -0.5593881684879367 0 1 0.23873241463784303
108 1 -0.7156172025473477 -3.7751351559159563 1.2212362548138138 0 1 0.23873241463784303
109 2 1.9351485437236846 -4.519101259960916 -3.864263947983776 0 0.11964285714285713 3.2366692065277736
110 2 -4.387869775874815 -3.1878266347381317 1.5879064033935357 0 0.11964285714285713 3.2366692065277736
111 2 -0.6090766883150547 -3.106583052500266 3.6880438270495297 0 0.11964285714285713 3.2366692065277736
112 2 3.909382145523786 2.5527938367342635 -0.06329940901206044 0 0.11964285714285713 3.2366692065277736
113 2 2.6857070541587937 3.8629799644757163 -5.06200310053266 0 0.11964285714285713 3.2366692065277736
114 2 -4.9776511714818135 -3.176730796845481 -5.055150993008988 0 0.11964285714285713 3.2366692065277736
115 2 3.6581951781166104 -2.254305927591618 -4.4600383748617904 0 0.11964285714285713 3.2366692065277736
116 2 -0.1523761035760085 1.318166247764438 2.56583148761991 0 0.11964285714285713 3.2366692065277736
117 2 4.615019157303941 -1.5712128909275211 -3.604347615967649 0 0.11964285714285713 3.2366692065277736
118 2 -3.378325246865886 3.2430008481936667 1.2410290851730785 0 0.11964285714285713 3.2366692065277736
119 2 -0.4287997790536089 4.3569883475825115 -0.2710190159675854 0 0.11964285714285713 3.2366692065277736
120 2 3.640984315782454 -0.2970026671875132 -4.29187109738637 0 0.11964285714285713 3.2366692065277736
121 2 -2.1620214802570032 -4.0650000589047774 2.271524415609548 0 0.11964285714285713 3.2366692065277736
122 2 4.874288903425896 -0.5982113714144504 4.526199819276144 0 0.11964285714285713 3.2366692065277736
123 2 -0.31426400019378953 -2.7798900885040307 2.6214379315155867 0 0.11964285714285713 3.2366692065277736
124 2 -3.6445240274128867 -4.389606525980609 4.931977600684871 0 0.11964285714285713 3.2366692065277736
125 2 -0.31175264970963745 -4.837793822907505 2.4014060289127315 0 0.11964285714285713 3.2366692065277736
126 2 3.2808506192950517 -1.5784808710280789 0.9251991714053283 0 0.11964285714285713 3.2366692065277736
127 2 0.9847286099470338 3.874606596294086 -2.0042326920417857 0 0.11964285714285713 3.2366692065277736
128 2 -0.25474797630927704 0.7824053130987316 0.17895087287712386 0 0.11964285714285713 3.2366692065277736
129 2 1.0949838338527336 -1.736747356828685 3.6362318607219315 0 0.11964285714285713 3.2366692065277736
130 2 -3.141870700683821 -1.7356624741530773 3.9337968154843956 0 0.11964285714285713 3.2366692065277736
131 2 -2.493157921097316 -3.415782861008136 0.8781972192113834 0 0.11964285714285713 3.2366692065277736
132 2 1.5154827652686045 -0.8108043450726399 4.869959644563053 0 0.11964285714285713 3.2366692065277736
133 2 3.6785666569064013 -1.6204795411189927 2.5002279188155896 0 0.11964285714285713 3.2366692065277736
134 2 -4.428121637490399 -4.408692376958305 4.261761300819469 0 0.11964285714285713 3.2366692065277736
135 2 0.341324438301319 -4.976975760170372 -4.932791232611756 0 0.11964285714285713 3.2366692065277736
136 2 -1.9289779117488361 0.04710287680877201 2.6656122826196196 0 0.11964285714285713 3.2366692065277736
137 2 -2.196936139321238 0.2797588405018008 3.967197878148081 0 0.11964285714285713 3.2366692065277736
138 2 0.43058478359897734 -2.5050209615222787 -0.5743062746075385 0 0.11964285714285713 3.2366692065277736
139 2 -2.364240753452501 -2.2375672620583984 -1.1060755336713548 0 0.11964285714285713 3.2366692065277736
140 2 4.669296112404428 -1.2670562063035682 -2.0696510520116504 0 0.11964285714285713 3.2366692065277736
141 2 2.9844753227270466 1.4944314182244192 -1.3403387730365655 0 0.11964285714285713 3.2366692065277736
142 2 0.29053107810198675 4.766394310231291 0.005044623973494922 0 0.11964285714285713 3.2366692065277736
143 2 -1.6795858924165863 3.0994483267089095 -4.347270047661402 0 0.11964285714285713 3.2366692065277736
144 2 -0.39563789509734804 -1.6159636827338861 -0.4877643353410068 0 0.11964285714285713 3.2366692065277736
145 2 1.2796301933643512 -0.5959166934742868 1.3769824447663304 0 0.11964285714285713 3.2366692065277736
146 2 -4.285250836884982 -0.8266765795837898 -2.127121960090239 0 0.11964285714285713 3.2366692065277736
147 2 4.219251559108418 -2.1486254947581287 4.090775125641581 0 0.11964285714285713 3.2366692065277736
148 2 -2.7214223157134168 2.708329922528307 4.497230838694911 0 0.11964285714285713 3.2366692065277736
149 2 1.3645736983182495 -4.916857593546064 1.5323650744959423 0 0.11964285714285713 3.2366692065277736
150 2 4.9685797349815 4.755045449082569 -3.7332493105803515 0 0.11964285714285713 3.2366692065277736
151 2 -3.9127211368450876 -4.892295490778597 -3.6003050604306637 0 0.11964285714285713 3.2366692065277736
152 2 1.6156399206734804 -3.624476010708424 -0.9356717910929202 0 0.11964285714285713 3.2366692065277736
153 2 -3.622882481245421 -1.5680261231326433 2.441412073776906 0 0.11964285714285713 3.2366692065277736
154 2 -2.699935050190705 -2.392204400871698 -0.3168136271304345 0 0.11964285714285713 3.2366692065277736
155 2 3.7150811753721413 -4.833253581201914 -2.092442068247264 0 0.11964285714285713 3.2366692065277736
156 2 -3.3458675278857655 1.7180707358539138 1.4850624948747289 0 0.11964285714285713 3.2366692065277736
157 2 -2.9348957486328917 2.722630813179716 3.732733758819883 0 0.11964285714285713 3.2366692065277736
158 2 2.5952668654311424 -0.6777220076679864 -0.9539053392721168 0 0.11964285714285713 3.2366692065277736
159 2 2.3278735981101093 1.6496530304087322 1.4524622917702352 0 0.11964285714285713 3.2366692065277736
160 2 1.7971446438911265 4.752948459178789 -0.9157377139401159 0 0.11964285714285713 3.2366692065277736
161 2 -3.527456954781565 0.13523876245081823 -1.9773323448714866 0 0.11964285714285713 3.2366692065277736
162 2 4.103534281176891 4.89315437572596 -3.190609232759421 0 0.11964285714285713 3.2366692065277736
163 2 -4.930160855543143 2.430155314622265 -3.595296496344524 0 0.11964285714285713 3.2366692065277736
164 2 -1.0320638507164368 -4.3154651842605105 -1.8102951379718277 0 0.11964285714285713 3.2366692065277736
165 2 -0.27152730215407495 -1.021181281616931 -1.5966815733777509 0 0.11964285714285713 3.2366692065277736
166 2 4.619978979136807 0.35373572259664776 -3.7475028279268585 0 0.11964285714285713 3.2366692065277736
167 2 4.812894133119077 -4.460665801933276 -2.472504496699793 0 0.11964285714285713 3.2366692065277736
168 2 -0.706005857535418 -1.8975141077108155 -2.5012538971318587 0 0.11964285714285713 3.2366692065277736
169 2 2.5945753792403288 -4.005662151625067 -0.9930093344112922 0 0.11964285714285713 3.2366692065277736
170 2 2.334353830133125 0.8988445108074359 -0.7908457750019995 0 0.11964285714285713 3.2366692065277736
171 2 -4.9282043974092815 0.7565489975424384 3.5678107090906863 0 0.11964285714285713 3.2366692065277736
172 2 1.6730430055481094 -3.6572019807148983 -1.7741312940592096 0 0.11964285714285713 3.2366692065277736
173 2 -1.5042316047980524 -3.950818495977744 4.714852339439265 0 0.11964285714285713 3.2366692065277736
174 2 -4.536155898020798 3.481957913867369 -0.7790175205856293 0 0.11964285714285713 3.2366692065277736
175 2 -3.25677507178977 4.139544988034903 -2.919153026384036 0 0.11964285714285713 3.2366692065277736
176 2 4.576977161494053 -0.28623717268247795 -1.0481790468382073 0 0.11964285714285713 3.2366692065277736
177 2 -0.6012153939414464 4.7608285963029395 -3.0857793720361837 0 0.11964285714285713 3.2366692065277736
178 2 -0.6268215627771667 1.8162386333747058 0.858927051312385 0 0.11964285714285713 3.2366692065277736
179 2 0.8139212415541053 1.5820678310689544 -2.3421853144746994 0 0.11964285714285713 3.2366692065277736
180 2 -0.6215432512021142 -0.02733524013151012 1.007578710553993 0 0.11964285714285713 3.2366692065277736
181 2 -5.035906695440142 -0.6344679367949126 1.0293775692160914 0 0.11964285714285713 3.2366692065277736
182 2 4.845592603584617 4.777065257074284 -3.5045836251243383 0 0.11964285714285713 3.2366692065277736
183 2 -1.1713767260213057 -4.158775029778949 1.4302754008420955 0 0.11964285714285713 3.2366692065277736
184 2 4.62603413373175 -0.41942172775971365 1.0947371405402606 0 0.11964285714285713 3.2366692065277736
185 2 -4.558235021992939 -4.46510479304693 -1.5490433252970117 0 0.11964285714285713 3.2366692065277736
186 2 -3.2879226826963865 -2.542634433814472 0.5762471733189862 0 0.11964285714285713 3.2366692065277736
187 2 3.1194993380570217 -1.831430256298665 -4.82411389414502 0 0.11964285714285713 3.2366692065277736
188 2 1.8816058973309495 2.136489264608663 2.5332100870280883 0 0.11964285714285713 3.2366692065277736
189 2 -1.5920678625646332 5.062247727897645 1.3790749524374384 0 0.11964285714285713 3.2366692065277736
190 2 -0.23294159659089964 1.5409243871460845 -2.981361222389074 0 0.11964285714285713 3.2366692065277736
191 2 -4.926626485810662 -3.7252547058962495 -2.204353691649178 0 0.11964285714285713 3.2366692065277736
192 2 2.6344120332083705 3.581590885296574 3.057736669321212 0 0.11964285714285713 3.2366692065277736
193 2 -3.649492854219213 2.2627192176689057 3.708676627793789 0 0.11964285714285713 3.2366692065277736
194 2 4.068273727173338 -4.495310127236891 1.0391403255446185 0 0.11964285714285713 3.2366692065277736
195 2 4.503222263841884 -2.633721197483455 4.396162058916822 0 0.11964285714285713 3.2366692065277736
196 2 1.1961689950314103 1.2177583795212534 -1.6819633722795988 0 0.11964285714285713 3.2366692065277736
197 2 3.206280206086067 4.997154819226097 0.151356949305276 0 0.11964285714285713 3.2366692065277736
198 2 -0.5659028105419672 4.180336659572923 -1.9933061312389864 0 0.11964285714285713 3.2366692065277736
199 2 -0.46638793589641914 -4.939739617051533 -4.360971979214138 0 0.11964285714285713 3.2366692065277736
200 2 -1.0787064291638409 2.000539393553371 4.24072797520131 0 0.11964285714285713 3.2366692065277736
201 2 4.1337589914896995 1.7934039668311677 4.838496518910031 0 0.11964285714285713 3.2366692065277736
202 2 3.814594102171448 3.4353011122011345 2.8533598231444266 0 0.11964285714285713 3.2366692065277736
203 2 2.9605833918387674 -1.4635386943600732 -0.9873147765600621 0 0.11964285714285713 3.2366692065277736
204 2 -2.9427074387427155 4.386664897577813 -1.9301668238217182 0 0.11964285714285713 3.2366692065277736
205 2 3.508075854668899 1.822047974827587 0.7302379864255215 0 0.11964285714285713 3.2366692065277736
206 2 -1.0195349865524506 -0.8898538587181974 4.24330383444866 0 0.11964285714285713 3.2366692065277736
207 2 -4.010817241171075 2.5355390824128925 4.141995215292209 0 0.11964285714285713 3.2366692065277736
208 2 4.037866108345796 -2.842776633406036 -3.903387843384939 0 0.11964285714285713 3.2366692065277736
209 2 1.325953766660838 3.6503499294642587 -0.27053132203953467 0 0.11964285714285713 3.2366692065277736
210 2 2.1000065812413844 -1.3851918777628764 3.0665722116391123 0 0.11964285714285713 3.2366692065277736
211 2 4.568604741163867 -4.997206987086127 0.6090962751743927 0 0.11964285714285713 3.2366692065277736
212 2 3.389173466471572 1.8733718616886463 0.5226745414488239 0 0.11964285714285713 3.2366692065277736
213 2 -0.6768089501213268 4.2690527400350184 3.8687583573983133 0 0.11964285714285713 3.2366692065277736
214 2 -4.537470072908427 -1.8821690537409683 3.8319600205029225 0 0.11964285714285713 3.2366692065277736
215 2 4.079198177602919 2.7286511827957476 2.2224588337019924 0 0.11964285714285713 3.2366692065277736
216 2 -2.2540405557680216 1.982457151200677 1.8428178789144738 0 0.11964285714285713 3.2366692065277736
217 2 -0.48384879065057085 2.060237524570404 0.6787799506774466 0 0.11964285714285713 3.2366692065277736
218 2 -4.135112347994232 0.7473912014821078 1.4452261258107661 0 0.11964285714285713 3.2366692065277736
219 2 0.5206174778153141 -1.0082485139365147 -0.19021172763292427 0 0.11964285714285713 3.2366692065277736
220 2 1.8569816548639615 0.7965706720149246 -1.9682638118080185 0 0.11964285714285713 3.2366692065277736
221 2 4.2216485033615 -4.313390458184614 1.9357982102263875 0 0.11964285714285713 3.2366692065277736
222 2 3.453608445181711 4.7653764197261275 0.8874119950613171 0 0.11964285714285713 3.2366692065277736
223 2 -4.015205539560288 -4.368633398363759 3.536161331663372 0 0.11964285714285713 3.2366692065277736
224 2 3.8877240797083488 -0.2867461615109157 1.7751274593434232 0 0.11964285714285713 3.2366692065277736
225 2 -4.638168261899526 1.8643526659313778 -4.196282205289595 0 0.11964285714285713 3.2366692065277736
226 2 4.877179205796896 -1.417115691825643 4.170981504441773 0 0.11964285714285713 3.2366692065277736
227 2 3.0872599459331234 -4.634417838187353 0.4406309341066894 0 0.11964285714285713 3.2366692065277736
228 2 -2.0334335927772234 -3.0698317595613727 3.8777893467090863 0 0.11964285714285713 3.2366692065277736
229 2 -2.0409472848054957 -3.897656292708316 1.0914020961310555 0 0.11964285714285713 3.2366692065277736
230 2 -4.963201030498237 1.1407655278123023 2.7096436158133166 0 0.11964285714285713 3.2366692065277736
231 2 -0.38434656921326216 -0.04381358755991549 -1.5185400375931657 0 0.11964285714285713 3.2366692065277736
232 2 4.883189019053756 -4.391021744058095 1.2729261276462402 0 0.11964285714285713 3.2366692065277736
233 2 2.612941107748888 -2.8848889671632243 -3.7484407733159166 0 0.11964285714285713 3.2366692065277736
234 2 -0.38646480565852137 -3.5974464258441987 5.001400199625763 0 0.11964285714285713 3.2366692065277736
235 2 -1.19874627642527 4.281139023399533 -1.674749394790755 0 0.11964285714285713 3.2366692065277736
236 2 3.0622959726451278 -3.2731930336741026 2.935505015562345 0 0.11964285714285713 3.2366692065277736
237 2 4.7976784857545915 0.09891754823361154 -0.4388281761253623 0 0.11964285714285713 3.2366692065277736
238 2 -3.324347088820762 3.861502984421257 -2.970491438519911 0 0.11964285714285713 3.2366692065277736
239 2 -4.416273720469441 -4.607112884414974 1.3696895193639378 0 0.11964285714285713 3.2366692065277736
240 2 0.5567445890920464 -4.314151094103533 4.635125165714847 0 0.11964285714285713 3.2366692065277736
241 2 2.1450007522575056 2.0112949549702996 0.5003952733664878 0 0.11964285714285713 3.2366692065277736
242 2 -2.773111787585419 4.731693426478014 -0.11785366976827127 0 0.11964285714285713 3.2366692065277736
243 2 -0.3570926604701299 4.5945392926295945 -1.073199685581356 0 0.11964285714285713 3.2366692065277736
244 2 -1.5777253759069954 -1.018013609959338 -3.5345507485430083 0 0.11964285714285713 3.2366692065277736
245 2 1.1139410487504549 2.3351815092114947 4.5074573416716675 0 0.11964285714285713 3.2366692065277736
246 2 -1.1614110064994811 -0.32610233842754255 -2.1056659919979968 0 0.11964285714285713 3.2366692065277736
247 2 -0.5001748862018829 -2.655535832969628 1.981350241915056 0 0.11964285714285713 3.2366692065277736
248 2 1.3168503874702182 -1.203128090462224 0.41452391212836126 0 0.11964285714285713 3.2366692065277736
249 2 3.133434369818474 1.5287006975496915 -2.283410152035227 0 0.11964285714285713 3.2366692065277736
250 2 -3.589472297031664 3.449477048868136 3.376730123863606 0 0.11964285714285713 3.2366692065277736
251 2 4.904651191080696 3.582337777462513 -0.4780645474583931 0 0.11964285714285713 3.2366692065277736
252 2 -0.4940341945081066 -2.7561786987344004 2.318674118584429 0 0.11964285714285713 3.2366692065277736
253 2 -4.056403078953952 4.726523313765284 4.5531581986698235 0 0.11964285714285713 3.2366692065277736
254 2 -4.293853993564131 -2.065188009876829 -3.5809613701488168 0 0.11964285714285713 3.2366692065277736
255 2 3.1210149466704564 2.4832118517880453 -4.048277665877043 0 0.11964285714285713 3.2366692065277736
256 2 0.4961863107818587 -1.363136554947591 -0.5161288798714718 0 0.11964285714285713 3.2366692065277736
257 2 4.449598304596961 -2.400230145732529 -2.625334431030211 0 0.11964285714285713 3.2366692065277736
258 2 -3.5747536221616034 0.24583087622436395 3.2336197398305053 0 0.11964285714285713 3.2366692065277736
259 2 -1.7676917370468814 4.939062098192991 -3.4249176918415056 0 0.11964285714285713 3.2366692065277736
260 2 -1.5109774816594435 -1.782458059513262 -1.1688053803391174 0 0.11964285714285713 3.2366692065277736
261 2 0.755597064329045 -1.1501083824092309 4.052583531044128 0 0.11964285714285713 3.2366692065277736
262 2 -4.739630779914963 -3.317651794095786 3.683644742459709 0 0.11964285714285713 3.2366692065277736
263 2 2.62519348381689 -0.6000911973351339 -0.30301914740955915 0 0.11964285714285713 3.2366692065277736
264 2 1.5774540648008042 2.642516746401732 0.4960827890968851 0 0.11964285714285713 3.2366692065277736
265 2 2.939679633582198 0.6128078176216523 3.926957672086761 0 0.11964285714285713 3.2366692065277736
266 2 3.54074457337914 4.66975957547659 3.395532237182156 0 0.11964285714285713 3.2366692065277736
267 2 2.5511262295649217 4.7931348393343285 -2.172602484923514 0 0.11964285714285713 3.2366692065277736
268 2 -3.907950917052485 2.264329673706218 1.551145331379022 0 0.11964285714285713 3.2366692065277736
269 2 3.435129185168737 -3.5738008816459566 0.5341451559742936 0 0.11964285714285713 3.2366692065277736
270 2 -4.971771744092514 0.8585475521419674 -1.5784769596769461 0 0.11964285714285713 3.2366692065277736
271 2 -1.256260733576429 -4.944968126194286 -2.1663809757628574 0 0.11964285714285713 3.2366692065277736
272 2 -1.0463378216687769 -4.7292999949534735 2.669722819256034 0 0.11964285714285713 3.2366692065277736
273 2 4.267410364534971 1.5214707631373194 -4.614404884773151 0 0.11964285714285713 3.2366692065277736
274 2 -0.36683924485060615 2.1732631123364463 0.35948018140593696 0 0.11964285714285713 3.2366692065277736
275 2 1.476955824084115 -1.344501546056204 1.7502560943342083 0 0.11964285714285713 3.2366692065277736
276 2 3.0808409569536934 2.370252607789009 -0.6200978672035511 0 0.11964285714285713 3.2366692065277736
277 2 3.175393531084829 -3.7782806983630977 1.2982118705048542 0 0.11964285714285713 3.2366692065277736
278 2 -2.8073592055969954 1.803284870419219 -1.110268652819343 0 0.11964285714285713 3.2366692065277736
279 2 4.577835720263423 0.38468480933369165 3.4260731079766416 0 0.11964285714285713 3.2366692065277736
280 2 4.50152341226789 2.9576040701385082 -1.1555010535270114 0 0.11964285714285713 3.2366692065277736
281 2 -3.338399637996984 4.442994375016873 -2.5960138041442136 0 0.11964285714285713 3.2366692065277736
282 2 0.2159584305502058 1.8652411132301694 2.6695644403901433 0 0.11964285714285713 3.2366692065277736
283 2 2.4306935561337504 2.9646936315705226 -3.9146245115451546 0 0.11964285714285713 3.2366692065277736
284 2 1.1900164827616138 -0.9570291654973548 -3.611442386114412 0 0.11964285714285713 3.2366692065277736
285 2 -4.438634366153783 2.6623197303987283 -3.0609551305582094 0 0.11964285714285713 3.2366692065277736
286 2 1.8587688219250218 -4.26007603502287 -1.8269001920624763 0 0.11964285714285713 3.2366692065277736
287 2 -2.9936616989616205 -0.6357541859757596 -1.4532104038394191 0 0.11964285714285713 3.2366692065277736
288 2 -4.410363738243378 -2.524009156482661 -4.399623970469339 0 0.11964285714285713 3.2366692065277736
289 2 4.219107862204382 -1.2928705974053596 -1.918421700913111 0 0.11964285714285713 3.2366692065277736
290 2 1.5367654775651793 -3.023882310738397 -3.0679015795252536 0 0.11964285714285713 3.2366692065277736
291 2 4.460216406107534 2.6437388824016175 -2.996195169180732 0 0.11964285714285713 3.2366692065277736
292 2 -0.5960430840206765 -2.4496264560295202 -5.014399857832288 0 0.11964285714285713 3.2366692065277736
293 2 4.491831647292166 -3.274456442382691 4.613078143132874 0 0.11964285714285713 3.2366692065277736
294 2 -0.011151069262467672 -2.415002287503066 3.89572717022552 0 0.11964285714285713 3.2366692065277736
295 2 2.3202173384641327 -0.8237741850465135 -1.861246870392474 0 0.11964285714285713 3.2366692065277736
296 2 -0.54353317506847 4.52743424670766 0.868372224749951 0 0.11964285714285713 3.2366692065277736
297 2 -2.250086985153402 5.050883439959609 -2.1456100699470646 0 0.11964285714285713 3.2366692065277736
298 2 -0.02851777408507772 4.289606772009389 -0.6737996324939513 0 0.11964285714285713 3.2366692065277736
299 2 -2.789683722887043 1.8155595887665719 2.431274052656363 0 0.11964285714285713 3.2366692065277736
300 2 -2.4247428455029336 -0.5705401442835818 -4.66006817043607 0 0.11964285714285713 3.2366692065277736
301 2 -0.5827137360899641 4.659384543660806 -3.563057461830404 0 0.11964285714285713 3.2366692065277736
302 2 1.2275853218585304 1.5399287051074815 3.6396657604086897 0 0.11964285714285713 3.2366692065277736
303 2 2.200526125160586 -1.0019415527790976 4.6037178357647015 0 0.11964285714285713 3.2366692065277736
304 2 -0.400916392527332 -3.6138811881217023 -2.7421298937476966 0 0.11964285714285713 3.2366692065277736